LAMMPS DATA FILE FOR /gpfs/u/scratch/XXXX/shared/PolyGroup/OTFdelta1/initVASP/nafion_h-x1y2z1+h2o-120-160-60-z15 in metal units

140 atoms
65 bonds
0 angles

6 atom types
5 bond types
0 improper types

0 11.067877421642246 xlo xhi
0 9.585072999846538 ylo yhi
0 16.262958200377835 zlo zhi
0.0 0.0 0.0 xy xz yz

Atoms # full

1 1 1 0.5 0.37369366757010675 0.612939095826986 5.833866370968941
2 1 1 0.5 1.66451322400905 0.7338309838621195 6.834832655447386
3 1 1 0.5 1.8338581057231496 2.093013142226144 7.560574901769188
4 1 1 0.5 1.9625851473560771 3.284327031425763 6.53620084655907
5 1 1 0.5 3.088685735802841 5.544246580875766 11.53986147431515
6 1 1 0.5 3.0951773769234103 4.628791644034309 10.304469837007135
7 1 1 0.5 3.4495180314730702 1.5686958369821582 9.390359674743548
8 1 1 0.5 4.527707956161015 2.55327016126539 9.977499404095045
9 1 1 0.5 5.573702763560708 1.897903253789889 10.865474924268518
10 1 1 0.5 6.898166101101116 6.403549657684461 8.159252579634014
11 1 1 0.5 6.9343722890610255 3.3476204454273817 6.153672858085952
12 1 1 0.5 7.21646528451205 3.483478918424979 4.5780729664256326
13 1 1 0.5 7.544768191133216 5.683797620870184 6.920278192893226
14 1 1 0.5 9.087183810591352 5.858236321472051 6.903002229652769
15 1 1 0.5 10.204211011503478 7.19311264843597 3.1219015740646614
16 1 1 0.5 10.472168188164986 -0.6305468910755138 6.0978832588971015
17 1 1 0.5 10.653874649461944 7.419386706100383 5.859094323490241
18 1 1 0.5 -0.009022562984308173 6.875533310703927 4.3924399556706195
19 1 2 -0.28 0.02350568563149525 5.531125843759635 4.465388456267562
20 1 2 -0.28 0.48258469122582354 6.877394173657597 6.711840818183651
21 1 2 -0.28 0.6702614958384218 2.1889730164011305 8.326175152770219
22 1 2 -0.28 0.7406530184948138 0.5698650012175538 4.514421189463965
23 1 2 -0.28 1.2400911000401975 7.232114641815858 4.208214599076414
24 1 2 -0.28 1.5326924495946197 2.9717741777037943 5.235848650017498
25 1 2 -0.28 1.5541940307954067 -0.22219433648670198 7.7313053790338
26 1 2 -0.28 1.8470974659899722 4.311865029900614 10.001734603570732
27 1 2 -0.28 2.199060072640668 6.521228450145231 11.21411217990473
28 1 2 -0.28 2.5364793402997035 1.4074386373541605 10.382027816933242
29 1 2 -0.28 2.8093867726709307 0.5807613687105835 6.0584323673904015
30 1 2 -0.28 3.1819825499589807 3.7700706534602517 6.421071700801016
31 1 2 -0.28 3.60661623915081 5.386811371769739 9.278838703030608
32 1 2 -0.28 3.961270007603379 0.38349404540470694 9.148963684860854
33 1 2 -0.28 4.3340737949936186 6.081486251586982 11.711280485390354
34 1 2 -0.28 4.901583474591085 10.979932580166821 11.97369538707745
35 1 2 -0.28 5.161909018828405 2.9963276832456693 8.847968948661393
36 1 2 -0.28 5.564867187297877 6.490574688192995 8.086888593995106
37 1 2 -0.28 5.599844271005717 3.050455170388362 6.301357761553646
38 1 2 -0.28 6.161388738811125 0.901790905231996 10.189158110410697
39 1 2 -0.28 6.473786893454338 2.7672828390629025 11.354548884294013
40 1 2 -0.28 7.056106883247972 6.247415431817365 5.753036200935235
41 1 2 -0.28 7.245051037509939 5.790652480523488 9.276101199326256
42 1 2 -0.28 7.33594405927893 7.6621245221533805 8.179995793683156
43 1 2 -0.28 7.582503160929241 2.2810387272632098 6.646384790300205
44 1 2 -0.28 7.593054146200216 2.2842824068380545 4.016480482414951
45 1 2 -0.28 8.21517788417259 4.393474593285936 4.356466545063367
46 1 2 -0.28 8.852482800312576 7.127210777196385 3.2658386086764692
47 1 2 -0.28 9.373967446966846 -0.3308817839385432 5.31001210949112
48 1 2 -0.28 9.545250415623888 6.01241639571781 8.205761056502247
49 1 2 -0.28 9.707597057075256 4.731290301763509 6.520461178605482
50 1 2 -0.28 10.001074856837523 -0.613016331933032 7.381130371283607
51 1 2 -0.28 10.544053029884257 6.256938571045346 2.165247947746195
52 1 2 -0.28 12.262639362291745 4.2753338918947446 7.0271635164276445
53 1 2 -0.28 -0.3644455788244585 1.6763412509009725 6.026434811239577
54 1 2 -0.28 -0.5306220301407685 8.407273217906052 2.6498828560770162
55 1 3 0.41 0.0018837232652653398 3.15577056433186 15.242540292523962
56 1 3 0.41 0.35660623153691096 5.63326724764119 15.677873780337599
57 1 3 0.41 0.44440841968111194 3.1474766274787114 16.799079014091244
58 1 3 0.41 0.5746540924803203 7.07157365525885 14.874433272101543
59 1 3 0.41 1.0359142237800865 2.5434258948346016 13.544043415526266
60 1 3 0.41 1.9427509740941926 7.10936414509403 16.26761087481341
61 1 3 0.41 2.3234865157233626 0.7030018525877565 17.36207854171199
62 1 3 0.41 2.7359239013805783 8.581177266895397 14.407475496543038
63 1 3 0.41 3.1551676277494525 6.689607711485758 15.381098372348575
64 1 3 0.41 3.451147451276229 -0.377710368674115 16.955481208618295
65 1 3 0.41 3.645124454785431 8.717692241076413 13.138467068178112
66 1 3 0.41 3.6756178016790266 2.4049323436252017 14.775142151256372
67 1 3 0.41 3.8041935097911384 1.5156235572749905 16.2269220844101
68 1 3 0.41 4.1100130970699205 7.043064711507649 17.558017575483827
69 1 3 0.41 4.229789067585934 8.394079927517296 5.28785483932627
70 1 3 0.41 4.687620331994112 6.906684464310907 5.026100003408473
71 1 3 0.41 4.7209817626356 3.422876192236038 16.17603168273789
72 1 3 0.41 4.782899830569525 6.327444817325609 18.870602702267032
73 1 3 0.41 4.968838520115341 5.357760447276525 14.096229196320094
74 1 3 0.41 5.47456657532266 1.1273574877450825 14.913505935189791
75 1 3 0.41 5.500913954417902 4.793559264672141 15.77378058390995
76 1 3 0.41 5.509898424034196 4.258711705184644 1.174163904356431
77 1 3 0.41 5.987763060263772 0.03083056737678873 13.839457027463807
78 1 3 0.41 6.050504369020131 8.694595547735775 12.039613416136385
79 1 3 0.41 6.223229167052859 7.583740573906913 17.79251421950982
80 1 3 0.41 6.347091760160389 4.363111087218707 14.15087951109677
81 1 3 0.41 6.4502778192037615 7.762079853161857 13.15659016424919
82 1 3 0.41 7.1284167380612935 2.4273214412813773 14.06990762429758
83 1 3 0.41 7.1419765087158344 0.5863724189910153 15.658727974520968
84 1 3 0.41 7.225050077574936 8.979084646466141 17.167715491912848
85 1 3 0.41 7.328678566013825 6.1383452860824805 13.841245915151724
86 1 3 0.41 7.810390388417229 7.273880870043243 16.941717625217333
87 1 3 0.41 7.95676039001549 1.4112996295066134 16.76493022570499
88 1 3 0.41 7.969861090320633 3.8743478848398065 17.236779058946627
89 1 3 0.41 8.018581450081687 3.308269592081469 15.005108194124404
90 1 3 0.41 8.472709197719501 6.917476485446192 15.081045609855767
91 1 3 0.41 8.567716381845468 6.646859058772963 12.835746775887502
92 1 3 0.41 8.612808341057569 3.661207343274149 12.702208754976686
93 1 3 0.41 9.221515703758065 9.906823966413773 15.295759668480637
94 1 3 0.41 9.364819348333855 3.3387149954223077 16.702269826869255
95 1 3 0.41 9.572989424026394 6.53437354149004 10.813146142182267
96 1 3 0.41 9.651671314237408 5.265431888323571 11.867040927226007
97 1 3 0.41 9.66516752663228 6.639806363721814 16.1186062176261
98 1 3 0.41 10.14332591912079 3.279687008486359 12.376465881478117
99 1 3 0.41 10.44186929147787 9.24410978020919 14.516497582428231
100 1 3 0.41 10.794812935076676 7.524554487057275 12.698919150625127
101 1 3 0.41 11.098822183397491 10.204456534744047 16.68089099848417
102 1 3 0.41 11.404448456097326 10.30768988961149 18.247207332623166
103 1 3 0.41 12.044052471074297 8.550822526615997 13.002523200062098
104 1 3 0.41 -0.049404018786089715 1.4546503683118 14.008573552660206
105 1 4 -0.82 0.10730077328562465 2.4473807689262084 13.829951213375868
106 1 4 -0.82 0.3717204839968321 6.636931642965266 15.750400966941251
107 1 4 -0.82 1.0032218114701361 5.087381652723999 13.160596417995608
108 1 4 -0.82 2.7478816057263393 3.3474066245971077 13.257098555295835
109 1 4 -0.82 2.7598123953061244 9.005116036662649 13.508349640912913
110 1 4 -0.82 2.938894262409212 7.282655753299577 16.144337048881454
111 1 4 -0.82 2.995096421850876 2.2547359421546647 8.257117111653661
112 1 4 -0.82 3.153297019057818 5.600529686837032 14.117535651564236
113 1 4 -0.82 3.323453617298739 0.5995148834376531 17.180875652542145
114 1 4 -0.82 3.995422381809705 3.598475245497531 10.680936117323196
115 1 4 -0.82 4.299714325350397 7.539356691558679 5.742827748081739
116 1 4 -0.82 4.30090898929958 2.135269665656898 15.498407197020557
117 1 4 -0.82 4.826722180181812 7.101992964993925 18.246048229128323
118 1 4 -0.82 4.843760694819694 2.709513308099687 3.422054119594018
119 1 4 -0.82 4.99469098417689 4.362155037126019 16.585420998577373
120 1 4 -0.82 5.0606908105095805 5.130825279136292 3.948348901440238
121 1 4 -0.82 5.686648603115924 8.392682608239655 12.875194179138962
122 1 4 -0.82 5.870950114015484 5.203927690737025 14.520910668681681
123 1 4 -0.82 6.314614559223354 0.8025995809608741 14.464831684174863
124 1 4 -0.82 6.416316033752116 4.11288959626687 2.2163411061625324
125 1 4 -0.82 7.1883992042819385 7.919387029872371 17.556804892655023
126 1 4 -0.82 7.213088016241699 4.371721220824393 7.0455378980697265
127 1 4 -0.82 7.623257380055405 3.310104324599028 14.100112226503743
128 1 4 -0.82 7.808206535612196 0.44117013349044426 16.43345182152874
129 1 4 -0.82 7.8227096591085274 6.940867225752339 13.532373705592512
130 1 4 -0.82 8.41635099888093 3.074956538424778 16.78045033371771
131 1 4 -0.82 8.67585390349103 6.690934804089722 16.059980755570816
132 1 4 -0.82 9.347331983998531 3.795575423073748 12.003536983648834
133 1 4 -0.82 9.372178172755351 6.927034408886089 6.148114677968531
134 1 4 -0.82 9.809348499911582 6.3340680144786115 11.72641203015938
135 1 4 -0.82 10.169060514940998 10.007114575043643 15.070115670476595
136 1 4 -0.82 11.214191889775469 8.139693488660196 13.357494372641998
137 1 4 -0.82 11.7417809789461 10.576840966682036 17.350567759564797
138 1 4 -0.82 -0.09154713413612922 3.6408767203252363 16.13456889483312
139 1 6 1.08 2.3982278767408522 4.7837319711077475 13.144726356641927
140 1 6 1.08 5.695099955558134 3.8919812764265025 3.497324182317425

Masses

1 12.01
2 19.0
3 1.01
4 16.0
5 195.1
6 32.06

Bond Coeffs

1 15.17779705117086 1.48
2 9.308326105810929 1.5
3 13.124457935819601 1.34
4 15.17779705117086 1.42
5 15.17779705117086 1.8

Bonds

1 2 1 16
2 3 1 22
3 3 1 53
4 2 1 2
5 3 2 25
6 3 2 29
7 2 2 3
8 3 3 21
9 2 3 4
10 4 3 111
11 3 4 24
12 3 4 52
13 3 4 30
14 2 5 6
15 5 5 139
16 3 5 27
17 3 5 33
18 3 6 31
19 3 6 26
20 4 6 114
21 3 7 28
22 4 7 111
23 3 7 32
24 2 7 8
25 3 8 35
26 4 8 114
27 2 8 9
28 3 9 34
29 3 9 38
30 3 9 39
31 3 10 36
32 2 10 13
33 3 10 41
34 3 10 42
35 3 11 37
36 2 11 12
37 3 11 43
38 4 11 126
39 5 12 140
40 3 12 44
41 3 12 45
42 4 13 126
43 3 13 40
44 2 13 14
45 3 14 49
46 4 14 133
47 3 14 48
48 3 15 46
49 3 15 51
50 2 15 18
51 3 15 54
52 3 16 47
53 3 16 50
54 2 16 17
55 4 17 133
56 2 17 18
57 3 17 20
58 3 18 19
59 3 18 23
60 1 107 139
61 1 108 139
62 1 112 139
63 1 118 140
64 1 120 140
65 1 124 140
