LAMMPS DATA FILE FOR sys2 in metal units

102 atoms

6 atom types

0 10.0 xlo xhi
0 10.0 ylo yhi
0 10.0 zlo zhi
0.0 0.0 0.0 xy xz yz

Atoms # full

1 1 3 0.41 6.796652 7.2575069999999995 4.230644
2 1 3 0.41 6.586485 5.778117 3.5718050000000003
3 1 3 0.41 8.705151 6.583896 7.230537
4 1 3 0.41 8.999281 4.982654 7.102677
5 1 3 0.41 1.447901 3.507938 1.094585
6 1 3 0.41 1.691434 5.119049 0.985736
7 1 3 0.41 4.891043 2.983824 4.541326
8 1 3 0.41 5.886156 3.606843 3.4062340000000004
9 1 3 0.41 1.029107 6.4097420000000005 5.390128
10 1 3 0.41 2.316652 7.414230000000001 5.382084000000001
11 1 3 0.41 4.5420169999999995 1.003804 3.577379
12 1 3 0.41 6.046855 1.3061159999999998 3.019788
13 1 3 0.41 7.6319170000000005 8.83036 8.630759
14 1 3 0.41 6.115095 8.351382000000001 8.261074
15 1 3 0.41 8.213523 4.528939 2.582042
16 1 3 0.41 7.147934 5.180298 1.529859
17 1 3 0.41 8.882137 1.2634239999999999 1.110931
18 1 3 0.41 8.132215 1.759964 2.473979
19 1 3 0.41 8.673966 3.9321070000000002 9.005146
20 1 3 0.41 7.127883000000001 4.418486 8.805394
21 1 3 0.41 4.520265 5.27602 3.008131
22 1 3 0.41 3.28447 6.3433139999999995 3.0311700000000004
23 1 3 0.41 5.3356840000000005 2.97823 6.692721000000001
24 1 3 0.41 5.850194 2.729747 8.222548
25 1 3 0.41 2.7462150000000003 7.412592999999999 1.000632
26 1 3 0.41 4.1115960000000005 6.516731 0.9999230000000001
27 1 3 0.41 3.852955 3.1988899999999996 8.944081
28 1 3 0.41 2.22831 3.2968330000000003 9.077398
29 1 3 0.41 6.188829999999999 5.051772 6.870627000000001
30 1 3 0.41 6.239306999999999 6.6766559999999995 6.7155819999999995
31 1 3 0.41 1.034534 1.465137 8.887253000000001
32 1 3 0.41 0.984424 0.986613 7.326695
33 1 3 0.41 1.436037 8.789839 3.3676709999999996
34 1 3 0.41 3.0443740000000004 9.010139 3.5453089999999996
35 1 3 0.41 5.030161 5.056336 8.987188
36 1 3 0.41 4.887262 6.683073 8.999123
37 1 3 0.41 3.75347 4.380129999999999 1.077118
38 1 3 0.41 5.136382 3.529507 1.2527089999999999
39 1 3 0.41 3.0970619999999998 3.82863 6.984726
40 1 3 0.41 1.7943010000000001 4.610041000000001 6.38552
41 1 3 0.41 7.413303999999999 8.960973 1.324103
42 1 3 0.41 7.068401 8.999463 2.9198459999999997
43 1 3 0.41 3.935302 1.708991 0.984068
44 1 3 0.41 2.460306 1.035445 1.1778710000000001
45 1 3 0.41 7.450552999999999 2.956162 4.796661
46 1 3 0.41 8.90753 3.0628100000000003 4.066811
47 1 3 0.41 3.53806 1.772471 6.351589
48 1 3 0.41 2.26642 1.1267340000000001 5.556108
49 1 3 0.41 1.3371939999999998 5.252862 3.1387199999999997
50 1 3 0.41 1.218114 6.711131999999999 2.413389
51 1 3 0.41 0.9965060000000001 3.225056 4.875718
52 1 3 0.41 2.628028 3.189838 4.936799
53 1 3 0.41 8.296693000000001 6.975813 0.989997
54 1 3 0.41 9.006902 6.56796 2.402829
55 1 3 0.41 3.393202 6.976477 7.437028
56 1 3 0.41 2.6745600000000005 5.668181 8.099412000000001
57 1 3 0.41 7.734427 5.6847970000000005 5.445352
58 1 3 0.41 8.997855999999999 5.258325 4.5026399999999995
59 1 3 0.41 1.479191 7.75713 8.176425
60 1 3 0.41 1.6143569999999998 8.80752 6.933344999999999
61 1 3 0.41 4.225182 4.8872480000000005 5.427486999999999
62 1 3 0.41 4.277889 6.4751590000000006 5.0498650000000005
63 1 3 0.41 1.354814 1.8425920000000002 3.207618
64 1 3 0.41 2.688066 2.6234420000000003 2.678896
65 1 3 0.41 8.323863 1.035962 5.443873
66 1 3 0.41 8.131582 1.990531 6.75485
67 1 3 0.41 5.9370080000000005 7.367551 1.867269
68 1 3 0.41 4.992437 8.325631999999999 2.79285
69 1 4 -0.82 7.135162 6.613768 3.544258
70 1 4 -0.82 8.420807 5.674639 7.5347
71 1 4 -0.82 0.9987360000000001 4.399022 1.028731
72 1 4 -0.82 5.008827 3.153067 3.5627560000000003
73 1 4 -0.82 1.7884729999999998 6.7682 5.933254999999999
74 1 4 -0.82 5.514245 1.0070999999999999 3.811643
75 1 4 -0.82 7.065411 8.054092 8.354000000000001
76 1 4 -0.82 7.415305 4.344009 2.008661
77 1 4 -0.82 8.202786 1.894514 1.4855289999999999
78 1 4 -0.82 7.778745000000001 3.677631 8.63917
79 1 4 -0.82 3.524929 5.372700999999999 3.016782
80 1 4 -0.82 6.0958369999999995 2.6543080000000003 7.256066
81 1 4 -0.82 3.74562 7.44736 1.010422
82 1 4 -0.82 2.99502 2.691337 8.863743
83 1 4 -0.82 5.636953999999999 5.881473000000001 6.786098000000001
84 1 4 -0.82 1.1704240000000001 1.754572 7.9396889999999996
85 1 4 -0.82 2.325169 8.332647 3.3908199999999997
86 1 4 -0.82 5.533665 5.920332 8.976591
87 1 4 -0.82 4.749996 4.417102 1.001714
88 1 4 -0.82 2.097877 3.870386 6.986245
89 1 4 -0.82 7.731636 8.697737 2.234865
90 1 4 -0.82 3.4259709999999997 0.9730709999999999 1.4302970000000002
91 1 4 -0.82 8.415677 3.1820939999999998 4.929348
92 1 4 -0.82 2.9248790000000002 0.984467 6.295235
93 1 4 -0.82 0.965202 6.17755 3.22051
94 1 4 -0.82 1.8368090000000001 3.5789090000000003 4.464873
95 1 4 -0.82 8.982573 6.388167999999999 1.419366
96 1 4 -0.82 3.267712 5.987304 7.360189
97 1 4 -0.82 8.631124999999999 5.967653 5.104703000000001
98 1 4 -0.82 0.998551 8.17769 7.406859
99 1 4 -0.82 3.676202 5.68879 5.1902800000000004
100 1 4 -0.82 2.354793 1.849843 3.217961
101 1 4 -0.82 8.628286 1.207202 6.380953
102 1 4 -0.82 5.293554 7.385541 2.632618

Masses

1 12.01
2 19.0
3 1.01
4 16.0
5 195.1
6 32.06
